MODEL 1
REMARK minimizedAffinity -9.3683567
REMARK minimizedRMSD -1
REMARK SMILES CN(Cc1cnc2nc(N)nc(O)c2n1)c1ccc(C(=O)NC(CCC(=O)NO)C(=O)O)cc1
REMARK SMILES IDX 20 1 21 2 22 3 19 5 16 6 17 7 34 8 18 9 33 10 2 11 1 12 3 13
REMARK SMILES IDX 4 14 5 15 15 16 6 17 14 18 7 19 12 20 8 21 11 22 9 23 13 24
REMARK SMILES IDX 10 26 23 29 24 30 25 31 26 32 27 33 28 34 29 36 30 38 31 39
REMARK SMILES IDX 32 40
REMARK H PARENT 22 4 13 25 10 27 10 28 28 35 29 37 32 41
ROOT
ATOM      1  C   UNL     1      39.132  21.184  -0.292  1.00  0.00     0.251 C 
ATOM      2  O   UNL     1      39.738  21.339   0.764  1.00  0.00    -0.269 OA
ATOM      3  N   UNL     1      39.116  19.987  -0.968  1.00  0.00    -0.339 N 
ATOM      4  H   UNL     1      38.721  19.917  -1.900  1.00  0.00     0.164 HD
ENDROOT
BRANCH   1   5
ATOM      5  C   UNL     1      38.395  22.322  -0.912  1.00  0.00     0.039 A 
ATOM      6  C   UNL     1      37.029  24.565  -2.019  1.00  0.00     0.037 A 
ATOM      7  C   UNL     1      36.936  23.287  -2.594  1.00  0.00     0.027 A 
ATOM      8  C   UNL     1      37.797  24.673  -0.848  1.00  0.00     0.027 A 
ATOM      9  C   UNL     1      37.608  22.178  -2.055  1.00  0.00     0.016 A 
ATOM     10  C   UNL     1      38.472  23.574  -0.301  1.00  0.00     0.016 A 
BRANCH   6  11
ATOM     11  N   UNL     1      36.375  25.682  -2.545  1.00  0.00    -0.369 N 
ATOM     12  C   UNL     1      37.022  26.992  -2.460  1.00  0.00     0.144 C 
BRANCH  11  13
ATOM     13  C   UNL     1      34.899  25.704  -2.490  1.00  0.00     0.174 C 
BRANCH  13  14
ATOM     14  C   UNL     1      34.367  26.130  -1.137  1.00  0.00     0.079 A 
ATOM     15  C   UNL     1      35.033  27.075  -0.374  1.00  0.00     0.139 A 
ATOM     16  N   UNL     1      33.204  25.589  -0.691  1.00  0.00    -0.240 NA
ATOM     17  N   UNL     1      34.590  27.495   0.837  1.00  0.00    -0.233 NA
ATOM     18  C   UNL     1      32.775  26.032   0.528  1.00  0.00     0.170 A 
ATOM     19  C   UNL     1      33.450  26.976   1.306  1.00  0.00     0.187 A 
ATOM     20  C   UNL     1      31.612  25.585   1.113  1.00  0.00     0.244 A 
ATOM     21  N   UNL     1      33.006  27.386   2.493  1.00  0.00    -0.191 NA
ATOM     22  N   UNL     1      31.131  25.971   2.300  1.00  0.00    -0.176 NA
ATOM     23  C   UNL     1      31.874  26.857   2.953  1.00  0.00     0.225 A 
BRANCH  20  24
ATOM     24  O   UNL     1      30.844  24.659   0.444  1.00  0.00    -0.492 OA
ATOM     25  H   UNL     1      31.336  24.472  -0.378  1.00  0.00     0.295 HD
ENDBRANCH  20  24
BRANCH  23  26
ATOM     26  N   UNL     1      31.420  27.288   4.179  1.00  0.00    -0.368 N 
ATOM     27  H   UNL     1      31.790  28.202   4.399  1.00  0.00     0.159 HD
ATOM     28  H   UNL     1      30.422  27.153   4.255  1.00  0.00     0.159 HD
ENDBRANCH  23  26
ENDBRANCH  13  14
ENDBRANCH  11  13
ENDBRANCH   6  11
ENDBRANCH   1   5
BRANCH   3  29
ATOM     29  C   UNL     1      39.839  18.810  -0.477  1.00  0.00     0.192 C 
BRANCH  29  30
ATOM     30  C   UNL     1      38.913  17.587  -0.454  1.00  0.00     0.047 C 
BRANCH  30  31
ATOM     31  C   UNL     1      37.878  17.575  -1.581  1.00  0.00     0.105 C 
BRANCH  31  32
ATOM     32  C   UNL     1      36.580  18.267  -1.223  1.00  0.00     0.243 C 
ATOM     33  O   UNL     1      35.917  18.024  -0.217  1.00  0.00    -0.273 OA
ATOM     34  N   UNL     1      36.175  19.194  -2.157  1.00  0.00    -0.238 N 
ATOM     35  H   UNL     1      36.846  19.677  -2.746  1.00  0.00     0.198 HD
BRANCH  34  36
ATOM     36  O   UNL     1      35.028  19.941  -1.790  1.00  0.00    -0.289 OA
ATOM     37  H   UNL     1      34.751  19.506  -0.954  1.00  0.00     0.246 HD
ENDBRANCH  34  36
ENDBRANCH  31  32
ENDBRANCH  30  31
ENDBRANCH  29  30
BRANCH  29  38
ATOM     38  C   UNL     1      41.044  18.625  -1.393  1.00  0.00     0.326 C 
ATOM     39  O   UNL     1      41.404  19.398  -2.271  1.00  0.00    -0.250 OA
BRANCH  38  40
ATOM     40  O   UNL     1      41.735  17.494  -1.140  1.00  0.00    -0.480 OA
ATOM     41  H   UNL     1      42.429  17.486  -1.834  1.00  0.00     0.296 HD
ENDBRANCH  38  40
ENDBRANCH  29  38
ENDBRANCH   3  29
TORSDOF 13
ENDMDL