MODEL 1
REMARK minimizedAffinity -10.6521435
REMARK minimizedRMSD -1
REMARK SMILES CN(Cc1cnc2nc(N)nc(O)c2n1)c1ccc(Oc2ccc(C(=O)NC(CCC(=O)O)C(=O)O)cc2)cc1
REMARK SMILES IDX 21 1 22 2 23 3 24 4 37 5 38 6 20 7 19 8 16 9 17 10 40 11
REMARK SMILES IDX 18 12 39 13 2 14 1 15 3 16 4 17 5 18 15 19 6 20 14 21 7 22
REMARK SMILES IDX 12 23 8 24 11 25 9 26 13 27 10 29 25 32 26 33 27 34 28 36
REMARK SMILES IDX 29 37 30 38 31 39 32 40 33 41 34 43 35 44 36 45
REMARK H PARENT 13 28 10 30 10 31 27 35 33 42 36 46
ROOT
ATOM      1  C   UNL     1      37.746  16.175  -0.093  1.00  0.00     0.127 A 
ATOM      2  C   UNL     1      39.115  16.008   0.118  1.00  0.00     0.048 A 
ATOM      3  C   UNL     1      39.577  15.471   1.325  1.00  0.00     0.017 A 
ATOM      4  C   UNL     1      38.670  15.131   2.338  1.00  0.00     0.040 A 
ATOM      5  C   UNL     1      37.295  15.305   2.113  1.00  0.00     0.017 A 
ATOM      6  C   UNL     1      36.832  15.829   0.904  1.00  0.00     0.048 A 
ENDROOT
BRANCH   1   7
ATOM      7  O   UNL     1      37.346  16.766  -1.268  1.00  0.00    -0.457 OA
BRANCH   7   8
ATOM      8  C   UNL     1      37.524  18.126  -1.349  1.00  0.00     0.127 A 
ATOM      9  C   UNL     1      37.756  20.954  -1.422  1.00  0.00     0.037 A 
ATOM     10  C   UNL     1      38.832  20.129  -1.040  1.00  0.00     0.030 A 
ATOM     11  C   UNL     1      36.553  20.305  -1.746  1.00  0.00     0.030 A 
ATOM     12  C   UNL     1      38.726  18.733  -1.003  1.00  0.00     0.049 A 
ATOM     13  C   UNL     1      36.432  18.909  -1.702  1.00  0.00     0.049 A 
BRANCH   9  14
ATOM     14  N   UNL     1      37.908  22.349  -1.428  1.00  0.00    -0.369 N 
ATOM     15  C   UNL     1      38.527  22.901  -0.209  1.00  0.00     0.144 C 
BRANCH  14  16
ATOM     16  C   UNL     1      38.238  23.054  -2.679  1.00  0.00     0.174 C 
BRANCH  16  17
ATOM     17  C   UNL     1      37.044  23.811  -3.225  1.00  0.00     0.079 A 
ATOM     18  C   UNL     1      36.846  23.921  -4.591  1.00  0.00     0.139 A 
ATOM     19  N   UNL     1      36.165  24.370  -2.361  1.00  0.00    -0.240 NA
ATOM     20  N   UNL     1      35.800  24.594  -5.131  1.00  0.00    -0.233 NA
ATOM     21  C   UNL     1      35.105  25.039  -2.915  1.00  0.00     0.170 A 
ATOM     22  C   UNL     1      34.922  25.164  -4.298  1.00  0.00     0.187 A 
ATOM     23  C   UNL     1      34.097  25.664  -2.201  1.00  0.00     0.244 A 
ATOM     24  N   UNL     1      33.899  25.821  -4.845  1.00  0.00    -0.191 NA
ATOM     25  N   UNL     1      33.044  26.323  -2.706  1.00  0.00    -0.176 NA
ATOM     26  C   UNL     1      33.011  26.387  -4.033  1.00  0.00     0.225 A 
BRANCH  23  27
ATOM     27  O   UNL     1      34.101  25.658  -0.836  1.00  0.00    -0.492 OA
ATOM     28  H   UNL     1      33.285  26.158  -0.646  1.00  0.00     0.295 HD
ENDBRANCH  23  27
BRANCH  26  29
ATOM     29  N   UNL     1      31.961  27.063  -4.614  1.00  0.00    -0.368 N 
ATOM     30  H   UNL     1      31.157  27.096  -4.005  1.00  0.00     0.159 HD
ATOM     31  H   UNL     1      31.816  26.751  -5.566  1.00  0.00     0.159 HD
ENDBRANCH  26  29
ENDBRANCH  16  17
ENDBRANCH  14  16
ENDBRANCH   9  14
ENDBRANCH   7   8
ENDBRANCH   1   7
BRANCH   4  32
ATOM     32  C   UNL     1      39.092  14.602   3.672  1.00  0.00     0.251 C 
ATOM     33  O   UNL     1      40.164  14.016   3.783  1.00  0.00    -0.269 OA
ATOM     34  N   UNL     1      38.217  14.763   4.725  1.00  0.00    -0.339 N 
ATOM     35  H   UNL     1      37.399  15.341   4.607  1.00  0.00     0.164 HD
BRANCH  34  36
ATOM     36  C   UNL     1      38.570  14.412   6.103  1.00  0.00     0.192 C 
BRANCH  36  37
ATOM     37  C   UNL     1      37.985  15.346   7.176  1.00  0.00     0.049 C 
BRANCH  37  38
ATOM     38  C   UNL     1      38.797  16.630   7.346  1.00  0.00     0.125 C 
BRANCH  38  39
ATOM     39  C   UNL     1      37.979  17.727   7.972  1.00  0.00     0.303 C 
ATOM     40  O   UNL     1      38.308  18.883   8.173  1.00  0.00    -0.252 OA
BRANCH  39  41
ATOM     41  O   UNL     1      36.740  17.305   8.293  1.00  0.00    -0.481 OA
ATOM     42  H   UNL     1      36.310  18.105   8.655  1.00  0.00     0.296 HD
ENDBRANCH  39  41
ENDBRANCH  38  39
ENDBRANCH  37  38
ENDBRANCH  36  37
BRANCH  36  43
ATOM     43  C   UNL     1      38.273  12.923   6.336  1.00  0.00     0.326 C 
ATOM     44  O   UNL     1      38.835  11.989   5.779  1.00  0.00    -0.250 OA
BRANCH  43  45
ATOM     45  O   UNL     1      37.371  12.677   7.306  1.00  0.00    -0.480 OA
ATOM     46  H   UNL     1      37.267  11.704   7.292  1.00  0.00     0.296 HD
ENDBRANCH  43  45
ENDBRANCH  36  43
ENDBRANCH  34  36
ENDBRANCH   4  32
TORSDOF 15
ENDMDL