MODEL 1
REMARK minimizedAffinity -9.81363869
REMARK minimizedRMSD -1
REMARK SMILES CN(Cc1cnc2nc(N)nc(O)c2n1)c1ccc(C(=O)NC(Cc2c[nH]c3ccccc23)C(=O)O)cc1
REMARK SMILES IDX 16 1 17 2 18 3 19 4 37 5 38 6 2 7 1 8 3 9 4 10 5 11 15 12
REMARK SMILES IDX 6 13 14 14 7 15 12 16 8 17 11 18 9 19 13 20 10 22 20 25
REMARK SMILES IDX 21 26 22 27 23 29 24 30 25 31 26 32 33 33 27 34 32 35 28 36
REMARK SMILES IDX 31 37 29 38 30 39 34 41 35 42 36 43
REMARK H PARENT 13 21 10 23 10 24 22 28 27 40 36 44
ROOT
ATOM      1  C   UNL     1      37.051  24.271  -1.866  1.00  0.00     0.037 A 
ATOM      2  C   UNL     1      37.936  24.340  -0.772  1.00  0.00     0.027 A 
ATOM      3  C   UNL     1      38.598  23.212  -0.263  1.00  0.00     0.016 A 
ATOM      4  C   UNL     1      38.397  21.962  -0.843  1.00  0.00     0.039 A 
ATOM      5  C   UNL     1      37.500  21.851  -1.901  1.00  0.00     0.016 A 
ATOM      6  C   UNL     1      36.842  22.986  -2.398  1.00  0.00     0.027 A 
ENDROOT
BRANCH   1   7
ATOM      7  N   UNL     1      36.406  25.403  -2.363  1.00  0.00    -0.369 N 
ATOM      8  C   UNL     1      37.141  26.374  -3.169  1.00  0.00     0.144 C 
BRANCH   7   9
ATOM      9  C   UNL     1      34.933  25.485  -2.409  1.00  0.00     0.174 C 
BRANCH   9  10
ATOM     10  C   UNL     1      34.349  25.983  -1.100  1.00  0.00     0.079 A 
ATOM     11  C   UNL     1      34.995  26.948  -0.350  1.00  0.00     0.139 A 
ATOM     12  N   UNL     1      33.169  25.475  -0.675  1.00  0.00    -0.240 NA
ATOM     13  N   UNL     1      34.504  27.432   0.818  1.00  0.00    -0.233 NA
ATOM     14  C   UNL     1      32.690  25.945   0.519  1.00  0.00     0.170 A 
ATOM     15  C   UNL     1      33.349  26.927   1.266  1.00  0.00     0.187 A 
ATOM     16  C   UNL     1      31.526  25.520   1.135  1.00  0.00     0.244 A 
ATOM     17  N   UNL     1      32.889  27.400   2.422  1.00  0.00    -0.191 NA
ATOM     18  N   UNL     1      31.033  25.951   2.302  1.00  0.00    -0.176 NA
ATOM     19  C   UNL     1      31.748  26.904   2.893  1.00  0.00     0.225 A 
BRANCH  16  20
ATOM     20  O   UNL     1      30.745  24.557   0.568  1.00  0.00    -0.492 OA
ATOM     21  H   UNL     1      30.033  24.483   1.227  1.00  0.00     0.295 HD
ENDBRANCH  16  20
BRANCH  19  22
ATOM     22  N   UNL     1      31.296  27.391   4.097  1.00  0.00    -0.368 N 
ATOM     23  H   UNL     1      30.740  26.705   4.590  1.00  0.00     0.159 HD
ATOM     24  H   UNL     1      32.047  27.839   4.606  1.00  0.00     0.159 HD
ENDBRANCH  19  22
ENDBRANCH   9  10
ENDBRANCH   7   9
ENDBRANCH   1   7
BRANCH   4  25
ATOM     25  C   UNL     1      39.096  20.735  -0.374  1.00  0.00     0.251 C 
ATOM     26  O   UNL     1      39.918  20.795   0.533  1.00  0.00    -0.269 OA
ATOM     27  N   UNL     1      38.729  19.551  -0.973  1.00  0.00    -0.338 N 
ATOM     28  H   UNL     1      37.915  19.514  -1.577  1.00  0.00     0.164 HD
BRANCH  27  29
ATOM     29  C   UNL     1      39.235  18.265  -0.473  1.00  0.00     0.196 C 
BRANCH  29  30
ATOM     30  C   UNL     1      38.276  17.123  -0.831  1.00  0.00     0.074 C 
BRANCH  30  31
ATOM     31  C   UNL     1      37.810  16.333   0.352  1.00  0.00    -0.020 A 
ATOM     32  C   UNL     1      36.514  15.935   0.623  1.00  0.00     0.087 A 
ATOM     33  C   UNL     1      38.623  15.863   1.432  1.00  0.00     0.003 A 
ATOM     34  N   UNL     1      36.514  15.253   1.810  1.00  0.00    -0.361 N 
ATOM     35  C   UNL     1      39.999  15.952   1.731  1.00  0.00     0.010 A 
ATOM     36  C   UNL     1      37.788  15.195   2.327  1.00  0.00     0.046 A 
ATOM     37  C   UNL     1      40.486  15.372   2.907  1.00  0.00     0.001 A 
ATOM     38  C   UNL     1      38.258  14.612   3.510  1.00  0.00     0.026 A 
ATOM     39  C   UNL     1      39.626  14.716   3.784  1.00  0.00     0.002 A 
ATOM     40  H   UNL     1      35.698  14.854   2.252  1.00  0.00     0.166 HD
ENDBRANCH  30  31
ENDBRANCH  29  30
BRANCH  29  41
ATOM     41  C   UNL     1      40.582  18.037  -1.144  1.00  0.00     0.326 C 
ATOM     42  O   UNL     1      40.752  17.533  -2.247  1.00  0.00    -0.250 OA
BRANCH  41  43
ATOM     43  O   UNL     1      41.633  18.461  -0.421  1.00  0.00    -0.480 OA
ATOM     44  H   UNL     1      42.415  18.256  -0.973  1.00  0.00     0.296 HD
ENDBRANCH  41  43
ENDBRANCH  29  41
ENDBRANCH  27  29
ENDBRANCH   4  25
TORSDOF 11
ENDMDL